#Units: real
#AtomStyle: full
#FF: GAFF

      1500 atoms
      1000 bonds
       500 angles
         0 dihedrals
         0 impropers

         2 atom types
         2 bond types
         1 angle types
         0 dihedral types
         0 improper types

9.3925851207431243e-01 2.5601741487925658e+01 xlo xhi
9.3925851207431243e-01 2.5601741487925658e+01 ylo yhi
9.3925851207431243e-01 2.5601741487925658e+01 zlo zhi

Masses

     2              1.00800 # HW_spc  
     1             15.99940 # OW_spc  

Pair Coeffs

     2    0.000000000000000    0.000000000000000 # HW_spc  
     1    0.155504063097514    3.165570000000000 # OW_spc  

Bond Coeffs

     1  412.284894837476083    1.000000000000000
     2  412.284894837476083    1.000000000000000

Angle Coeffs

 1   45.769598470363287  109.470000000000000

Atoms # full

1186 396 1 -8.4760000000000002e-01 5.5214426198307756e+00 5.9772306503512436e+00 2.4144192869331889e+00 0 0 1
1027 343 1 -8.4760000000000002e-01 8.5994187963134401e+00 1.0740099524176690e+01 5.4486801104484526e+00 0 0 0
1028 343 2 4.2380000000000001e-01 9.1559991861051184e+00 1.1524946928892462e+01 5.7206557993314817e+00 0 0 0
1029 343 2 4.2380000000000001e-01 9.1362028132275732e+00 1.0140471466693187e+01 4.8553445732969127e+00 0 0 0
1187 396 2 4.2380000000000001e-01 4.5820657077509814e+00 5.7489594691961248e+00 2.1590739494128668e+00 0 0 1
383 128 2 4.2380000000000001e-01 5.3200823577685732e+00 6.1565250358790529e+00 6.2863492274316179e+00 1 0 0
382 128 1 -8.4760000000000002e-01 4.9137712198003562e+00 6.9400949697960774e+00 6.7561016811077366e+00 1 0 0
384 128 2 4.2380000000000001e-01 5.6192112480622320e+00 7.4169449586899603e+00 7.2802260968695034e+00 1 0 0
1238 413 2 4.2380000000000001e-01 4.3995613266395637e+00 1.2854986897884908e+01 3.6909239245540832e+00 0 0 1
1188 396 2 4.2380000000000001e-01 5.7793401993319753e+00 5.4617817688760697e+00 3.2314500362769074e+00 0 0 1
456 152 2 4.2380000000000001e-01 4.2999390450364867e+00 9.9041772479363832e+00 5.9806507021216078e+00 0 0 0
138 46 2 4.2380000000000001e-01 3.1500669002286887e+00 2.8663343110208617e+00 3.9542698045750408e+00 0 0 0
455 152 2 4.2380000000000001e-01 3.7871364728237582e+00 8.3576629540588545e+00 6.0867392177494066e+00 0 0 0
454 152 1 -8.4760000000000002e-01 3.5025411208643269e+00 9.3031387830330559e+00 5.9291990864609039e+00 0 0 0
137 46 2 4.2380000000000001e-01 3.1128426309975001e+00 2.2697405435754323e+00 2.4348561201076109e+00 0 0 0
594 198 2 4.2380000000000001e-01 6.0521783109669576e+00 3.8583424109541054e+00 5.3847454801507153e+00 0 0 0
592 198 1 -8.4760000000000002e-01 6.1141380241952694e+00 4.8351059873276938e+00 5.1802170571111636e+00 0 0 0
136 46 1 -8.4760000000000002e-01 3.2286460429694990e+00 3.0968987471790390e+00 2.9845258603180502e+00 0 0 0
132 44 2 4.2380000000000001e-01 5.4797394163902142e+00 7.9011362499513540e+00 2.1584530470430972e+00 0 1 1
130 44 1 -8.4760000000000002e-01 5.3445637908080217e+00 8.4935868543442616e+00 1.3644330298844614e+00 0 1 1
518 173 2 4.2380000000000001e-01 5.7008122315946048e+00 1.1684685573966341e+01 6.1977102543740887e+00 1 0 0
517 173 1 -8.4760000000000002e-01 5.9096207660878735e+00 1.0976428509822497e+01 5.5235375153117152e+00 1 0 0
519 173 2 4.2380000000000001e-01 6.8975599482730283e+00 1.0825286744086158e+01 5.4940368415857854e+00 1 0 0
1237 413 1 -8.4760000000000002e-01 5.1418791175671066e+00 1.2391897575982455e+01 3.2069295734425634e+00 0 0 1
690 230 2 4.2380000000000001e-01 2.7853717478787967e+00 8.2977705207802881e+00 2.7070627749114937e+00 1 0 0
1336 446 1 -8.4760000000000002e-01 2.3341207789187517e+00 5.3988744532695110e+00 6.5821397793516647e+00 1 0 0
1327 443 1 -8.4760000000000002e-01 7.3286101931676892e+00 8.7078025108818675e+00 7.0239127323060995e+00 0 0 0
1328 443 2 4.2380000000000001e-01 7.9899715417781465e+00 8.6208764064605816e+00 6.2790751833377696e+00 0 0 0
1339 447 1 -8.4760000000000002e-01 8.0265439855456471e+00 1.2430945818003448e+01 8.8293632658899490e+00 1 0 0
689 230 2 4.2380000000000001e-01 2.6762808373310749e+00 8.6310898303067418e+00 4.3017179466770923e+00 1 0 0
1338 446 2 4.2380000000000001e-01 3.0413365300825990e+00 6.0427778015939762e+00 6.2906396682561248e+00 1 0 0
607 203 1 -8.4760000000000002e-01 8.3078563946470734e+00 8.8976153996936134e+00 1.2030314115274974e+00 0 0 1
499 167 1 -8.4760000000000002e-01 1.2543436962959607e+00 1.1700379538202275e+01 2.1346349185472286e+00 0 0 0
593 198 2 4.2380000000000001e-01 7.0756585753486467e+00 5.1025092185776018e+00 5.1192933636696409e+00 0 0 0
742 248 1 -8.4760000000000002e-01 5.5109167101026610e+00 2.5673482150120175e+00 6.4336511271171570e+00 0 0 0
446 149 2 4.2380000000000001e-01 5.9244616933089134e+00 1.3581796788578693e+00 3.7561503716326663e+00 0 0 1
688 230 1 -8.4760000000000002e-01 2.2289408973683913e+00 8.1802838579956987e+00 3.5294492678285430e+00 1 0 0
960 320 2 4.2380000000000001e-01 2.1553966255092885e+00 1.2329742059941198e+01 3.6941662729636615e+00 0 0 0
743 248 2 4.2380000000000001e-01 4.7039083074292893e+00 2.4484114135998487e+00 7.0118634045266175e+00 0 0 0
1239 413 2 4.2380000000000001e-01 5.5531809306688853e+00 1.1705292285508737e+01 3.8062141040172195e+00 0 0 1
447 149 2 4.2380000000000001e-01 5.2276436949581662e+00 2.5568909279447558e+00 2.8939069424869923e+00 0 0 1
567 189 2 4.2380000000000001e-01 2.6968899959244217e+00 2.2071520781817684e+00 6.4731299070476016e+00 1 1 0
445 149 1 -8.4760000000000002e-01 6.0530203247382168e+00 2.0031941082034157e+00 3.0030454462960212e+00 0 0 1
500 167 2 4.2380000000000001e-01 2.0387868926867192e+00 1.1828482481026622e+01 1.5280242787174321e+00 0 0 0
250 84 1 -8.4760000000000002e-01 8.1123401872077814e+00 1.0204741841222733e+00 7.3909627149041803e+00 0 0 1
134 45 2 4.2380000000000001e-01 9.0812379342628233e+00 2.7053595632290763e+00 7.8700571241950987e+00 0 0 1
744 248 2 4.2380000000000001e-01 6.2846358489214929e+00 2.0788688936299478e+00 6.8367449211202915e+00 0 0 0
1337 446 2 4.2380000000000001e-01 2.6641764529051244e+00 4.4631172133366608e+00 6.4590154777264388e+00 1 0 0
602 201 2 4.2380000000000001e-01 2.3384502975773023e+00 5.8963360010415782e+00 8.4749147450949849e+00 0 0 0
548 183 2 4.2380000000000001e-01 1.8149378867259429e+00 1.0547746665510665e+01 6.6948703878288187e+00 1 0 1
959 320 2 4.2380000000000001e-01 2.0872150771982190e+00 1.2542578776156562e+01 5.3115652746093049e+00 0 0 0
783 261 2 4.2380000000000001e-01 1.2423135463204917e+00 5.7497942642540947e+00 5.1537297657668297e+00 0 1 1
547 183 1 -8.4760000000000002e-01 1.4001081567791400e+00 1.1443750032522498e+01 6.5372879600172595e+00 1 0 1
958 320 1 -8.4760000000000002e-01 2.4248207111783082e+00 1.2924510470780014e+01 4.4513975165572361e+00 0 0 0
782 261 2 4.2380000000000001e-01 1.1775995809693498e+00 6.7532677208502383e+00 3.8673469142656494e+00 0 1 1
1044 348 2 4.2380000000000001e-01 2.5337216777890919e+00 1.6545636159340418e+00 8.5761434208948213e+00 1 1 0
1329 443 2 4.2380000000000001e-01 7.0784186199836778e+00 9.6692429332873946e+00 7.1369368331991261e+00 0 0 0
549 183 2 4.2380000000000001e-01 1.2121364438647666e+00 1.1883091926774874e+01 7.4155722515721987e+00 1 0 1
1043 348 2 4.2380000000000001e-01 3.5096332872318210e+00 2.9633255504810880e+00 8.6019586725517527e+00 1 1 0
1042 348 1 -8.4760000000000002e-01 3.1459464846046052e+00 2.2272828803395139e+00 8.0312476708112506e+00 1 1 0
824 275 2 4.2380000000000001e-01 2.9097621940769018e+00 4.4939710837386695e+00 1.9470111339212255e+00 0 0 0
541 181 1 -8.4760000000000002e-01 3.2045997927102685e+00 9.2684337916079738e+00 8.9393540904609186e+00 1 0 0
708 236 2 4.2380000000000001e-01 9.0983833805433800e+00 1.9949621187721309e+00 2.3042437436850980e+00 0 1 0
706 236 1 -8.4760000000000002e-01 8.5986937604175235e+00 2.6808728165231543e+00 2.8329920330166853e+00 0 1 0
1010 337 2 4.2380000000000001e-01 6.5627476742556210e+00 1.1492417619849613e+01 8.6579288940415839e+00 0 1 0
823 275 1 -8.4760000000000002e-01 2.7746388931927806e+00 5.2780692002717675e+00 1.3414784816955569e+00 0 0 0
1408 470 1 -8.4760000000000002e-01 8.6787729481889393e+00 5.2942269096969623e+00 3.5580370789592637e+00 0 1 0
1410 470 2 4.2380000000000001e-01 8.6628914308161082e+00 4.2946686474637890e+00 3.5772466995721017e+00 0 1 0
707 236 2 4.2380000000000001e-01 7.7815677345677372e+00 2.2644097481240042e+00 3.2312400957728533e+00 0 1 0
145 49 1 -8.4760000000000002e-01 4.7819632378611274e+00 1.3081479996181159e+01 6.8932977895220331e+00 0 0 1
542 181 2 4.2380000000000001e-01 3.9284972661303388e+00 9.4561571982692723e+00 8.2756747047586146e+00 1 0 0
565 189 1 -8.4760000000000002e-01 2.3070258556907071e+00 2.1648503334769380e+00 5.5533720765733401e+00 1 1 0
608 203 2 4.2380000000000001e-01 7.5652985833491568e+00 8.7854416733581324e+00 1.8631548136875697e+00 0 0 1
1446 482 2 4.2380000000000001e-01 8.7243059795342770e+00 6.4835023329923720e+00 8.9477965200994927e+00 0 0 0
543 181 2 4.2380000000000001e-01 3.1204412611492920e+00 8.2807528356955427e+00 9.0702801405797420e+00 1 0 0
228 76 2 4.2380000000000001e-01 7.0948846222308264e+00 7.9593996722335980e+00 8.9023280629052088e+00 0 0 0
1009 337 1 -8.4760000000000002e-01 5.7760319448189641e+00 1.0903910802353137e+01 8.4722516423022665e+00 0 1 0
212 71 2 4.2380000000000001e-01 4.3155704030046458e+00 1.2271010062204587e+01 1.6109388581553983e+00 0 0 1
566 189 2 4.2380000000000001e-01 1.3672138213068799e+00 1.8274628290197716e+00 5.6049565074024521e+00 1 1 0
1011 337 2 4.2380000000000001e-01 5.0383265566805342e+00 1.1449296494431801e+01 8.0746549114756405e+00 0 1 0
156 52 2 4.2380000000000001e-01 6.5472185221386807e+00 2.7006285624753708e+00 1.3530715550574004e+00 0 1 1
857 286 2 4.2380000000000001e-01 9.6475244524157127e+00 7.2149462704038072e+00 1.1897526522996666e+00 1 1 1
739 247 1 -8.4760000000000002e-01 1.0353857014869563e+01 1.2732129624531760e+01 6.1780735877370843e+00 0 0 1
668 223 2 4.2380000000000001e-01 1.2076520847008480e+01 1.2975754225322152e+01 1.5148898530465016e+00 0 0 1
144 48 2 4.2380000000000001e-01 1.7151264212160868e+01 1.2091777482458335e+01 2.5744746175713136e+00 0 0 1
835 279 1 -8.4760000000000002e-01 1.2473140882015061e+01 1.2495697836585567e+01 8.0197892185606108e+00 0 0 0
926 309 2 4.2380000000000001e-01 1.1929201543734091e+01 2.4466119421692136e+00 1.2434617271512964e+00 0 0 0
964 322 1 -8.4760000000000002e-01 1.1864097696911278e+01 1.2548218229910411e+01 3.8118547913652789e+00 0 0 0
836 279 2 4.2380000000000001e-01 1.3228752238136797e+01 1.2823934008415629e+01 8.5864023573208073e+00 0 0 0
740 247 2 4.2380000000000001e-01 1.0701722640537039e+01 1.2767079825370152e+01 5.2413207162705868e+00 0 0 1
1478 493 2 4.2380000000000001e-01 1.1617563631758440e+01 6.2615424349007167e+00 9.5797174042574662e-01 0 0 0
1477 493 1 -8.4760000000000002e-01 1.2522659595308031e+01 6.5963266555906523e+00 1.2196180296684951e+00 0 0 0
292 98 1 -8.4760000000000002e-01 1.6343507475289691e+01 4.2095208481168882e+00 1.5208341709853901e+00 0 0 1
1409 470 2 4.2380000000000001e-01 9.1614717212389802e+00 5.6041922387642780e+00 2.7390979207945030e+00 0 1 0
966 322 2 4.2380000000000001e-01 1.2613315684213431e+01 1.1903882181025319e+01 3.6594034252263379e+00 0 0 0
303 101 2 4.2380000000000001e-01 1.0736810649581864e+01 1.0005644527644085e+01 3.0265982882501090e+00 0 0 0
983 328 2 4.2380000000000001e-01 1.7213167627532243e+01 1.2781631118894524e+01 7.1850522846044544e+00 0 0 1
905 302 2 4.2380000000000001e-01 9.2297365827827988e+00 6.8114708007132503e+00 4.5320507113418671e+00 0 0 0
107 36 2 4.2380000000000001e-01 1.1252384806299641e+01 9.7467417707919557e-01 6.5495291676992675e+00 0 1 0
640 214 1 -8.4760000000000002e-01 1.4059524683583842e+01 1.0932245386737403e+01 3.2366639557202479e+00 0 0 1
301 101 1 -8.4760000000000002e-01 1.0584603606715733e+01 9.5316710829966880e+00 3.8937315802279793e+00 0 0 0
302 101 2 4.2380000000000001e-01 1.1445245622218428e+01 9.4782260879270286e+00 4.3998708028464506e+00 0 0 0
494 165 2 4.2380000000000001e-01 1.4762729012328085e+01 6.4016261326598372e+00 7.2346113357537911e+00 0 0 0
108 36 2 4.2380000000000001e-01 1.0096981953601505e+01 2.0592744803757350e+00 6.1563191107213093e+00 0 1 0
293 98 2 4.2380000000000001e-01 1.6586959725127684e+01 3.2524793833941819e+00 1.3641797735158034e+00 0 0 1
140 47 2 4.2380000000000001e-01 1.3902239161384413e+01 7.6301189867478749e+00 3.6202239416903863e+00 0 0 1
122 41 2 4.2380000000000001e-01 1.1923859159032224e+01 7.6467391489651444e+00 6.0879586233818515e+00 0 0 1
25 9 1 -8.4760000000000002e-01 1.6096294576420540e+01 9.3247612568902589e+00 8.2316077649509118e+00 0 0 0
141 47 2 4.2380000000000001e-01 1.3780517964317522e+01 7.6649137696523040e+00 1.9923722948467502e+00 0 0 1
431 144 2 4.2380000000000001e-01 1.2137373759363056e+01 2.7068224866346209e+00 4.9131997280575916e+00 0 0 0
430 144 1 -8.4760000000000002e-01 1.3083945272715720e+01 2.9017465405728782e+00 4.6567919689911008e+00 0 0 0
999 333 2 4.2380000000000001e-01 1.2602937860540347e+01 5.1792566513326905e+00 7.3299983061579459e+00 0 0 0
904 302 1 -8.4760000000000002e-01 9.9613650346011831e+00 7.1827746295751300e+00 5.1035323282140475e+00 0 0 0
1215 405 2 4.2380000000000001e-01 1.3159874469026420e+01 3.3218699056421994e+00 3.0205685469119996e+00 0 0 1
682 228 1 -8.4760000000000002e-01 1.4267573136995875e+01 5.6343245995876350e+00 4.3689308746487150e+00 0 0 1
968 323 2 4.2380000000000001e-01 1.7368312721436951e+01 1.1040997794884477e+01 4.3021715306981907e+00 0 0 0
432 144 2 4.2380000000000001e-01 1.3684751953778381e+01 2.7163256779257119e+00 5.4342161709462253e+00 0 0 0
684 228 2 4.2380000000000001e-01 1.5263175282521880e+01 5.5896439356117842e+00 4.2881969703996070e+00 0 0 1
683 228 2 4.2380000000000001e-01 1.3900857791350028e+01 4.7113867549380641e+00 4.4848771606078355e+00 0 0 1
139 47 1 -8.4760000000000002e-01 1.4154919949746173e+01 8.1320538160065432e+00 2.7932101581217355e+00 0 0 1
656 219 2 4.2380000000000001e-01 1.4205666696284249e+01 1.2011717909180879e+01 6.5478221599845403e+00 0 0 1
37 13 1 -8.4760000000000002e-01 1.5367963907491085e+01 2.6654808362868501e+00 6.2035231604340595e+00 0 0 1
39 13 2 4.2380000000000001e-01 1.5893483024652229e+01 3.5150147382235999e+00 6.1603982018346084e+00 0 0 1
657 219 2 4.2380000000000001e-01 1.4106736267286614e+01 1.1972404958734639e+01 4.9185293749931631e+00 0 0 1
38 13 2 4.2380000000000001e-01 1.5865426548125752e+01 1.9933329847241512e+00 6.7516893287710875e+00 0 0 1
133 45 1 -8.4760000000000002e-01 9.9008766445438496e+00 3.0492035642054574e+00 8.3279890462449586e+00 0 0 1
945 315 2 4.2380000000000001e-01 1.4516825184622990e+01 9.8756676558095009e+00 7.8565745316708959e+00 0 0 1
943 315 1 -8.4760000000000002e-01 1.3528562373933902e+01 9.8602969457888126e+00 7.7054509922778216e+00 0 0 1
754 252 1 -8.4760000000000002e-01 1.7323384507186034e+01 6.2353325629609158e+00 9.0997499881374893e+00 0 0 0
479 160 2 4.2380000000000001e-01 1.5926192110667191e+01 7.9520707667220707e+00 2.9930791818376856e+00 0 0 1
478 160 1 -8.4760000000000002e-01 1.6767059299422982e+01 8.1563575875415957e+00 3.4940254986827162e+00 0 0 1
480 160 2 4.2380000000000001e-01 1.6660912775113420e+01 9.0210119705775220e+00 3.9847837359091622e+00 0 0 1
655 219 1 -8.4760000000000002e-01 1.4134001802711747e+01 1.2568780823844673e+01 5.7206081571887442e+00 0 0 1
814 272 1 -8.4760000000000002e-01 1.6995031616804376e+01 5.7647112459661640e+00 4.6790667667368986e+00 0 0 0
121 41 1 -8.4760000000000002e-01 1.2599894966801386e+01 8.2732435327460543e+00 5.7003946952154543e+00 0 0 1
123 41 2 4.2380000000000001e-01 1.2971215870346390e+01 8.8529942425943471e+00 6.4254794195252511e+00 0 0 1
816 272 2 4.2380000000000001e-01 1.7167677559213203e+01 6.5527020059033365e+00 4.0883029417570640e+00 0 0 0
495 165 2 4.2380000000000001e-01 1.6049142423315139e+01 6.4001134375634372e+00 6.2290935833107151e+00 0 0 0
135 45 2 4.2380000000000001e-01 1.0231250558597699e+01 3.8642747900279040e+00 7.8523316693814875e+00 0 0 1
641 214 2 4.2380000000000001e-01 1.4033824275791581e+01 9.9399101246770876e+00 3.1168800734163149e+00 0 0 1
424 142 1 -8.4760000000000002e-01 1.5210128982900310e+01 1.0951069741579205e+00 3.4649424506230155e+00 0 0 1
26 9 2 4.2380000000000001e-01 1.7045995642660976e+01 9.5684931247934362e+00 8.0356470292261051e+00 0 0 0
967 323 1 -8.4760000000000002e-01 1.6949850346949063e+01 1.0501330963607115e+01 5.0325049486841484e+00 0 0 0
906 302 2 4.2380000000000001e-01 1.0390303407703454e+01 7.9552784291167615e+00 4.6355710961678351e+00 0 0 0
493 165 1 -8.4760000000000002e-01 1.5640511602957622e+01 6.8351029518957747e+00 7.0313048561383997e+00 0 0 0
258 86 2 4.2380000000000001e-01 1.5951066705597460e+01 1.2753436207340160e+01 8.8396318733824586e+00 0 0 0
27 9 2 4.2380000000000001e-01 1.5914215628312720e+01 8.3995973236249490e+00 7.8989564312962592e+00 0 0 0
224 75 2 4.2380000000000001e-01 1.2557278099700527e+01 1.9164674586281136e+00 8.5871937887239937e+00 0 1 0
944 315 2 4.2380000000000001e-01 1.3147012494147679e+01 1.0762974477600347e+01 7.9037712217308975e+00 0 0 1
106 36 1 -8.4760000000000002e-01 1.0878316201980358e+01 1.5382169583233662e+00 5.8131663649634726e+00 0 1 0
997 333 1 -8.4760000000000002e-01 1.3582873799670333e+01 5.1872166898514660e+00 7.5284930295855412e+00 0 0 0
680 227 2 4.2380000000000001e-01 1.0753331505703084e+01 5.8643434594333153e+00 6.2320041687667622e+00 1 0 0
756 252 2 4.2380000000000001e-01 1.6847997580687746e+01 6.3953658328365623e+00 8.2348022587013272e+00 0 0 0
679 227 1 -8.4760000000000002e-01 1.0822744016839595e+01 5.2998722235513602e+00 7.0543739658112923e+00 1 0 0
1213 405 1 -8.4760000000000002e-01 1.3244612489222842e+01 3.0692156179427958e+00 2.0568656652402382e+00 0 0 1
837 279 2 4.2380000000000001e-01 1.1877717121256286e+01 1.1907288490615988e+01 8.5665825452517126e+00 0 0 0
223 75 1 -8.4760000000000002e-01 1.2992710515770042e+01 2.6439505494879256e+00 9.1171984353297812e+00 0 1 0
143 48 2 4.2380000000000001e-01 1.6295195203444166e+01 1.3005107606848076e+01 1.5261895184941110e+00 0 0 1
642 214 2 4.2380000000000001e-01 1.5009765981657100e+01 1.1243338284933392e+01 3.2374642188077813e+00 0 0 1
998 333 2 4.2380000000000001e-01 1.3790415130818372e+01 4.4863817159545150e+00 8.2107648890712888e+00 0 0 0
256 86 1 -8.4760000000000002e-01 1.5102915296056588e+01 1.3247931286949287e+01 9.0289774788848600e+00 0 0 0
1433 478 2 4.2380000000000001e-01 1.7166098997735659e+01 2.9688793784086238e+00 8.3176262463544006e+00 0 0 0
1184 395 2 4.2380000000000001e-01 1.5769218355482911e+01 9.4197708916763538e+00 1.5411394826464189e+00 0 0 1
1214 405 2 4.2380000000000001e-01 1.4018892613159290e+01 3.5551470306050263e+00 1.6517744309865696e+00 0 0 1
856 286 1 -8.4760000000000002e-01 9.7490944083285349e+00 6.2255880624968736e+00 1.2926693043192010e+00 1 1 1
333 111 2 4.2380000000000001e-01 1.1305396297977383e+01 9.4421717431001788e+00 1.1483884050576696e+00 0 0 0
741 247 2 4.2380000000000001e-01 1.1056509839569548e+01 1.2354041684476135e+01 6.7806235625258759e+00 0 0 1
681 227 2 4.2380000000000001e-01 1.0393235549714474e+01 5.7751666483597495e+00 7.8220689851769327e+00 1 0 0
294 98 2 4.2380000000000001e-01 1.7130927506218043e+01 4.6961264115597263e+00 1.8988853207728791e+00 0 0 1
1444 482 1 -8.4760000000000002e-01 9.6695706050804695e+00 6.7821098811160487e+00 9.0783579036808160e+00 0 0 0
245 82 2 4.2380000000000001e-01 1.5905819222823416e+01 1.2530646926673168e+00 1.5204399985893864e+00 0 1 1
332 111 2 4.2380000000000001e-01 9.7258387684733663e+00 9.8550855295152928e+00 1.1690749636932576e+00 0 0 0
1479 493 2 4.2380000000000001e-01 1.2883776656902619e+01 6.0340873449146386e+00 1.9634052172725442e+00 0 0 0
425 142 2 4.2380000000000001e-01 1.4972345037774225e+01 2.0018778707338605e+00 3.8127402227081459e+00 0 0 1
331 111 1 -8.4760000000000002e-01 1.0659313817246344e+01 1.0202242413093582e+01 1.0805064478145838e+00 0 0 0
142 48 1 -8.4760000000000002e-01 1.6332301116009035e+01 1.2654205414194204e+01 2.4617261330491660e+00 0 0 1
173 58 2 4.2380000000000001e-01 1.6055472370241233e+01 1.3980271238609165e+00 9.0397967655567584e+00 0 1 0
443 148 2 4.2380000000000001e-01 1.9192680393743657e+01 1.1683946383089728e+01 3.2977998143954808e+00 0 0 0
28 10 1 -8.4760000000000002e-01 2.2903144117233886e+01 1.2659308962613636e+01 2.6366531731985114e+00 0 0 1
1376 459 2 4.2380000000000001e-01 2.5254346915362923e+01 8.3613978119063148e+00 7.5232090979114377e+00 0 1 0
1070 357 2 4.2380000000000001e-01 2.3356073676613320e+01 3.5341776231581150e+00 1.7479961969861570e+00 -1 0 0
948 316 2 4.2380000000000001e-01 2.3050580433027974e+01 1.1977339152364339e+01 8.4064081507004325e+00 0 0 0
502 168 1 -8.4760000000000002e-01 2.4420496701015637e+01 9.3118438503210346e+00 1.4539089227584043e+00 0 0 0
1481 494 2 4.2380000000000001e-01 2.1272618030119112e+01 6.5057475340337678e+00 5.1676381488143228e+00 0 0 0
1227 409 2 4.2380000000000001e-01 2.1112117359046294e+01 1.2624166170300498e+01 3.4225753094200022e+00 -1 0 0
920 307 2 4.2380000000000001e-01 2.3877705216210011e+01 6.3289710538138255e+00 4.1389633210550070e+00 0 0 0
1034 345 2 4.2380000000000001e-01 2.0241684368384334e+01 1.3117504535088290e+01 6.9093526131504062e+00 0 0 0
79 27 1 -8.4760000000000002e-01 2.4816200656566096e+01 1.1054861786610635e+00 4.0577450135506119e+00 0 0 0
713 238 2 4.2380000000000001e-01 2.3254373295946230e+01 1.2297437656369750e+01 5.6180102374401448e+00 0 0 0
946 316 1 -8.4760000000000002e-01 2.3374317961938054e+01 1.1182640793511178e+01 8.9196200827641690e+00 0 0 0
1357 453 1 -8.4760000000000002e-01 2.3805371040139264e+01 3.6501325468985830e+00 3.4743773746305200e+00 -1 1 0
356 119 2 4.2380000000000001e-01 2.2056604362839494e+01 6.4536791666680982e+00 2.1410356627893945e+00 -1 0 0
442 148 1 -8.4760000000000002e-01 1.8448926000757353e+01 1.1136938478437882e+01 2.9139382409518033e+00 0 0 0
712 238 1 -8.4760000000000002e-01 2.3638600988363308e+01 1.1547120352206935e+01 5.0803012281850526e+00 0 0 0
1212 404 2 4.2380000000000001e-01 1.9753081270385550e+01 1.4240642840899933e+00 5.9341060961373282e+00 0 0 0
969 323 2 4.2380000000000001e-01 1.7638140573119593e+01 1.0288391184070369e+01 5.7257950539811659e+00 0 0 0
1002 334 2 4.2380000000000001e-01 2.1768345962766567e+01 9.5037094342220865e+00 3.7109245522489864e+00 0 0 0
815 272 2 4.2380000000000001e-01 1.7700336542205477e+01 5.0726793632744469e+00 4.5261786097965286e+00 0 0 0
883 295 1 -8.4760000000000002e-01 2.4138062778668633e+01 4.3898844831093466e+00 7.4246157727398661e+00 0 0 0
773 258 2 4.2380000000000001e-01 2.0786332403670144e+01 2.0109297980260950e+00 1.3889393012642401e+00 0 1 0
982 328 1 -8.4760000000000002e-01 1.7586254288523300e+01 1.2388871898881833e+01 8.0254596166523662e+00 0 0 1
30 10 2 4.2380000000000001e-01 2.3420233453303204e+01 1.3120746342001233e+01 1.9159367773518159e+00 0 0 1
772 258 1 -8.4760000000000002e-01 2.0011729764214500e+01 2.2847196406842709e+00 1.9588233326244144e+00 0 1 0
327 109 2 4.2380000000000001e-01 2.1998882570960340e+01 6.4997731163123245e+00 7.6918658283825758e+00 0 0 0
984 328 2 4.2380000000000001e-01 1.8017984153764282e+01 1.1510748681867639e+01 7.8199191262579433e+00 0 0 1
1211 404 2 4.2380000000000001e-01 1.9417341273121508e+01 2.6711203788987112e+00 6.9331343525269293e+00 0 0 0
1377 459 2 4.2380000000000001e-01 2.4239914645750702e+01 9.4686412104663660e+00 8.1641981339130041e+00 0 1 0
444 148 2 4.2380000000000001e-01 1.8831057144713661e+01 1.0383540272508361e+01 2.3790505076570545e+00 0 0 0
29 10 2 4.2380000000000001e-01 2.3537383176351895e+01 1.2262471758925752e+01 3.2999773845357332e+00 0 0 1
229 77 1 -8.4760000000000002e-01 1.9372254255700412e+01 8.8407321896284170e+00 1.0666770938119803e+00 0 0 0
325 109 1 -8.4760000000000002e-01 2.2103072387015672e+01 7.1227067474997998e+00 8.4670020273904996e+00 0 0 0
1375 459 1 -8.4760000000000002e-01 2.4361996508320452e+01 8.4990421378615242e+00 7.9527469251605787e+00 0 1 0
1295 432 2 4.2380000000000001e-01 2.4718160354672527e+01 3.0358492157153925e+00 8.4832197025434990e+00 0 0 0
503 168 2 4.2380000000000001e-01 2.3835542964897328e+01 9.3404097155871746e+00 2.2643107168540104e+00 0 0 0
781 261 1 -8.4760000000000002e-01 2.5392882512211230e+01 5.9868805729114900e+00 4.3282165416231004e+00 -1 1 1
1294 432 1 -8.4760000000000002e-01 2.4961490259025567e+01 2.2354245974103302e+00 9.0308043520063208e+00 0 0 0
1434 478 2 4.2380000000000001e-01 1.7725055673395559e+01 4.5029784287202341e+00 8.3235635790334239e+00 0 0 0
1226 409 2 4.2380000000000001e-01 2.0728753437506185e+01 1.2354177847404570e+01 4.9865657600361351e+00 -1 0 0
1000 334 1 -8.4760000000000002e-01 2.2719040489381534e+01 9.6026642352807432e+00 3.4174525432341079e+00 0 0 0
160 54 1 -8.4760000000000002e-01 1.8707636592382400e+01 1.0071367142972358e+01 7.0700157010583720e+00 0 1 0
1345 449 1 -8.4760000000000002e-01 1.9538348010928701e+01 7.7973455006628765e+00 8.8995044854026730e+00 0 0 0
714 238 2 4.2380000000000001e-01 2.4524695279430375e+01 1.1283701015651857e+01 5.4613328707840694e+00 0 0 0
326 109 2 4.2380000000000001e-01 2.2770976992736962e+01 7.8307062616910903e+00 8.2381394554608178e+00 0 0 0
81 27 2 4.2380000000000001e-01 2.4488782750218263e+01 1.9856712089116624e+00 3.7145107054752953e+00 0 0 0
162 54 2 4.2380000000000001e-01 1.9110590380034203e+01 9.2100991748456291e+00 7.3791818044828190e+00 0 1 0
1359 453 2 4.2380000000000001e-01 2.4515312947062093e+01 4.3453930768209812e+00 3.5854324911360926e+00 -1 1 0
919 307 1 -8.4760000000000002e-01 2.3031277413464259e+01 6.6492134945047825e+00 3.7138248710612682e+00 0 0 0
323 108 2 4.2380000000000001e-01 1.9516272047266611e+01 3.4490172290037573e+00 5.0385767960656462e+00 0 0 0
421 141 1 -8.4760000000000002e-01 1.9847922143570678e+01 8.7383788075901947e+00 3.7178172992485621e+00 0 1 1
423 141 2 4.2380000000000001e-01 1.8890630032049643e+01 8.5114807513856334e+00 3.8962746743289443e+00 0 1 1
1033 345 1 -8.4760000000000002e-01 2.0421183113666956e+01 1.2140016940434322e+01 7.0190620331523013e+00 0 0 0
1432 478 1 -8.4760000000000002e-01 1.7961886922097158e+01 3.5484963544773485e+00 8.1429731852261913e+00 0 0 0
774 258 2 4.2380000000000001e-01 1.9803224167927802e+01 1.5555752677430332e+00 2.6104458106586961e+00 0 1 0
422 141 2 4.2380000000000001e-01 2.0005669059594346e+01 8.7651821707370310e+00 2.7308342988391821e+00 0 1 1
1210 404 1 -8.4760000000000002e-01 1.9940900869958234e+01 2.3863346091564721e+00 6.1303140923259418e+00 0 0 0
115 39 1 -8.4760000000000002e-01 2.2241325439145058e+01 3.7974357455277659e+00 5.9010270131548888e+00 -1 1 0
324 108 2 4.2380000000000001e-01 1.9231904600829822e+01 3.4693606465675000e+00 3.4308924328429606e+00 0 0 0
322 108 1 -8.4760000000000002e-01 1.9081521015218172e+01 3.9534519913050126e+00 4.2927383027553354e+00 0 0 0
1482 494 2 4.2380000000000001e-01 1.9935227540959467e+01 5.8585667357422988e+00 5.8447433123577017e+00 0 0 0
1001 334 2 4.2380000000000001e-01 2.3183510079575825e+01 1.0261659875692578e+01 4.0088328789078620e+00 0 0 0
1480 494 1 -8.4760000000000002e-01 2.0870798996990544e+01 6.1659531766020921e+00 6.0178259017191484e+00 0 0 0
161 54 2 4.2380000000000001e-01 1.9422354753745765e+01 1.0766901216659274e+01 6.9982643640717859e+00 0 1 0
885 295 2 4.2380000000000001e-01 2.3514695787362712e+01 3.8893876530536722e+00 6.8240706241497353e+00 0 0 0
921 307 2 4.2380000000000001e-01 2.3121339214716983e+01 7.6171309157420053e+00 3.4798105729720676e+00 0 0 0
884 295 2 4.2380000000000001e-01 2.3958121340500391e+01 5.3705178760138734e+00 7.3490037253339606e+00 0 0 0
116 39 2 4.2380000000000001e-01 2.1601633268125177e+01 3.0500787577988624e+00 6.0798828520672883e+00 -1 1 0
1358 453 2 4.2380000000000001e-01 2.3087060973639048e+01 3.7956897806873569e+00 4.1545109612780671e+00 -1 1 0
355 119 1 -8.4760000000000002e-01 2.1503709054977939e+01 6.0984602957557241e+00 1.3874679512384303e+00 -1 0 0
1035 345 2 4.2380000000000001e-01 2.0737912717614627e+01 1.1961824965373577e+01 7.9505489807310097e+00 0 0 0
117 39 2 4.2380000000000001e-01 2.1737567080862441e+01 4.6585574675163439e+00 5.8344323430006497e+00 -1 1 0
504 168 2 4.2380000000000001e-01 2.5273156996882889e+01 8.8386737778328772e+00 1.6748578916147139e+00 0 0 0
1346 449 2 4.2380000000000001e-01 2.0481979430969012e+01 7.5066130696430067e+00 8.7421121389480803e+00 0 0 0
1225 409 1 -8.4760000000000002e-01 2.0360877234646630e+01 1.2554921458401616e+01 4.0787623333378615e+00 -1 0 0
501 167 2 4.2380000000000001e-01 2.5307010295974173e+01 1.1008079033217950e+01 1.7491716195158631e+00 -1 0 0
1296 432 2 4.2380000000000001e-01 2.4167085910427353e+01 1.6338392379433784e+00 9.1129916485895830e+00 0 0 0
947 316 2 4.2380000000000001e-01 2.4348436261667921e+01 1.1288656515341435e+01 9.1185978689787319e+00 0 0 0
66 22 2 4.2380000000000001e-01 2.3707642421703707e+00 8.0651382007195007e+00 1.2310501029198866e+01 0 0 0
64 22 1 -8.4760000000000002e-01 2.6029544463121215e+00 7.1423153481144421e+00 1.2617459738793906e+01 0 0 0
935 312 2 4.2380000000000001e-01 8.1808389455009358e+00 1.7080011930237564e+00 1.5938266500496843e+01 0 0 0
65 22 2 4.2380000000000001e-01 2.2429783325865023e+00 6.4741344172139446e+00 1.1966545460715318e+01 0 0 0
1119 373 2 4.2380000000000001e-01 5.2015286029054373e+00 2.2306022587127607e+00 1.4738849228555800e+01 0 1 0
200 67 2 4.2380000000000001e-01 8.0380265296178699e+00 4.2340146995288697e+00 1.6683983541125670e+01 0 0 0
820 274 1 -8.4760000000000002e-01 7.6147996901910950e+00 9.6673646809598210e+00 1.5611845382255208e+01 0 0 0
497 166 2 4.2380000000000001e-01 6.6584407108534212e+00 5.4396312124146720e+00 1.2994707820878807e+01 0 0 0
12 4 2 4.2380000000000001e-01 5.5750472050525310e+00 7.7882528508458995e+00 1.3062539658674620e+01 0 0 0
460 154 1 -8.4760000000000002e-01 6.2779159313131965e+00 2.0820201428845482e+00 1.2908759906415332e+01 0 1 0
496 166 1 -8.4760000000000002e-01 6.6997014843253107e+00 4.6437089953354143e+00 1.3598482052857861e+01 0 0 0
10 4 1 -8.4760000000000002e-01 5.5096277247293459e+00 6.9026784694451209e+00 1.2602956963221622e+01 0 0 0
498 166 2 4.2380000000000001e-01 6.5613869714789548e+00 3.8111547206408178e+00 1.3062328680510349e+01 0 0 0